
     Program PWSCF v.5.0.2 (svn rev. 9392) starts on  6Nov2019 at 16:48:53 

     This program is part of the open-source Quantum ESPRESSO suite
     for quantum simulation of materials; please cite
         "P. Giannozzi et al., J. Phys.:Condens. Matter 21 395502 (2009);
          URL http://www.quantum-espresso.org", 
     in publications or presentations arising from this work. More details at
     http://www.quantum-espresso.org/quote.php

     Parallel version (MPI), running on     1 processors

     Current dimensions of program PWSCF are:
     Max number of different atomic species (ntypx) = 10
     Max number of k-points (npk) =  40000
     Max angular momentum in pseudopotentials (lmaxx) =  3
     Waiting for input...
     Reading input from standard input
     Message from routine iosys:
     pot_extrapolation='second_order' not available, using 'atomic'
     Message from routine iosys:
     wfc_extrapolation='second_order' not available, using 'atomic'

     Subspace diagonalization in iterative solution of the eigenvalue problem:
     a serial algorithm will be used


     G-vector sticks info
     --------------------
     sticks:   dense  smooth     PW     G-vecs:    dense   smooth      PW
     Sum       14857    5957   1481              1105319   279579   34923



     bravais-lattice index     =            0
     lattice parameter (alat)  =      28.5000  a.u.
     unit-cell volume          =   18762.9750 (a.u.)^3
     number of atoms/cell      =            4
     number of atomic types    =            1
     number of electrons       =        40.00
     number of Kohn-Sham states=          288
     kinetic-energy cutoff     =      23.0000  Ry
     charge density cutoff     =     230.0000  Ry
     convergence threshold     =      1.0E-08
     mixing beta               =       0.5000
     number of iterations used =            8  plain     mixing
     Exchange-correlation      =  SLA  PW   PBE  PBE ( 1 4 3 4 0)
     EXX-fraction              =        0.00
     nstep                     =          300


     celldm(1)=  28.500000  celldm(2)=   0.000000  celldm(3)=   0.000000
     celldm(4)=   0.000000  celldm(5)=   0.000000  celldm(6)=   0.000000

     crystal axes: (cart. coord. in units of alat)
               a(1) = (   1.000000   0.000000   0.000000 )  
               a(2) = (   0.000000   1.000000   0.000000 )  
               a(3) = (   0.000000   0.000000   0.810526 )  

     reciprocal axes: (cart. coord. in units 2 pi/alat)
               b(1) = (  1.000000  0.000000  0.000000 )  
               b(2) = (  0.000000  1.000000  0.000000 )  
               b(3) = (  0.000000  0.000000  1.233766 )  


     PseudoPot. # 1 for pt read from file:
     /home/gabrielaraujo/pseudo/Pt.pbe-n-van.UPF
     MD5 check sum: 754de10c04a454cb9ba3851d10d6a70c
     Pseudo is Ultrasoft + core correction, Zval = 10.0
     Generated by new atomic code, or converted to UPF format
     Using radial grid of  985 points,  3 beta functions with: 
                l(1) =   1
                l(2) =   2
                l(3) =   2
     Q(r) pseudized with  8 coefficients,  rinner =    1.000   1.000   1.000
                                                       1.000   1.000

     atomic species   valence    mass     pseudopotential
        Pt            10.00   195.08400     pt( 1.00)

      4 Sym. Ops. (no inversion) found
          (note: 12 additional sym.ops. were found but ignored
           their fractional translations are incommensurate with FFT grid)


   Cartesian axes

     site n.     atom                  positions (alat units)
         1           Pt  tau(   1) = (   0.0000000   0.0000000   0.0000000  )
         2           Pt  tau(   2) = (   0.1836681   0.0000000   0.0000000  )
         3           Pt  tau(   3) = (   0.1836681   0.1836681   0.0000000  )
         4           Pt  tau(   4) = (   0.0000000   0.1836681   0.0000000  )

     number of k points=     1  Methfessel-Paxton smearing, width (Ry)=  0.0200
                       cart. coord. in units 2pi/alat
        k(    1) = (   0.0000000   0.0000000   0.0000000), wk =   2.0000000

     Dense  grid:  1105319 G-vectors     FFT dimensions: ( 144, 144, 120)

     Smooth grid:   279579 G-vectors     FFT dimensions: (  90,  90,  72)

     Largest allocated arrays     est. size (Mb)     dimensions
        Kohn-Sham Wavefunctions       153.47 Mb     (  34923,  288)
        NL pseudopotentials            27.71 Mb     (  34923,   52)
        Each V/rho on FFT grid         37.97 Mb     (2488320)
        Each G-vector array             8.43 Mb     (1105319)
        G-vector shells                 0.40 Mb     (  52815)
     Largest temporary arrays     est. size (Mb)     dimensions
        Each subspace H/S matrix        1.27 Mb     ( 288, 288)
        Each <psi_i|beta_j> matrix      0.23 Mb     (     52,  288)
        Arrays for rho mixing         303.75 Mb     (2488320,   8)

     Initial potential from superposition of free atoms
     Check: negative starting charge=   -0.013297

     starting charge   39.99945, renormalised to   40.00000

     negative rho (up, down):  0.133E-01 0.000E+00
     Starting wfc are   36 randomized atomic wfcs

     total cpu time spent up to now is      170.1 secs

     per-process dynamical memory:   731.5 Mb

     Self-consistent Calculation

     iteration #  1     ecut=    23.00 Ry     beta=0.50
     CG style diagonalization
     ethr =  1.00E-02,  avg # of iterations =  8.1

     negative rho (up, down):  0.911E-02 0.000E+00

     total cpu time spent up to now is     1029.6 secs

     total energy              =    -354.22640370 Ry
     Harris-Foulkes estimate   =    -354.45997948 Ry
     estimated scf accuracy    <       0.43815992 Ry

     iteration #  2     ecut=    23.00 Ry     beta=0.50
     CG style diagonalization
     ethr =  1.10E-03,  avg # of iterations =  3.0

     negative rho (up, down):  0.752E-02 0.000E+00

     total cpu time spent up to now is     1398.8 secs

     total energy              =    -354.28504002 Ry
     Harris-Foulkes estimate   =    -354.36429902 Ry
     estimated scf accuracy    <       0.19268031 Ry

     iteration #  3     ecut=    23.00 Ry     beta=0.50
     CG style diagonalization
     ethr =  4.82E-04,  avg # of iterations =  3.0

     negative rho (up, down):  0.636E-02 0.000E+00

     total cpu time spent up to now is     1796.8 secs

     total energy              =    -354.32730682 Ry
     Harris-Foulkes estimate   =    -354.33801588 Ry
     estimated scf accuracy    <       0.03972770 Ry

     iteration #  4     ecut=    23.00 Ry     beta=0.50
     CG style diagonalization
     ethr =  9.93E-05,  avg # of iterations =  4.4

     negative rho (up, down):  0.587E-02 0.000E+00

     total cpu time spent up to now is     2398.5 secs

     total energy              =    -354.32880860 Ry
     Harris-Foulkes estimate   =    -354.33192186 Ry
     estimated scf accuracy    <       0.00823828 Ry

     iteration #  5     ecut=    23.00 Ry     beta=0.50
     CG style diagonalization
     c_bands:  1 eigenvalues not converged
     ethr =  2.06E-05,  avg # of iterations =  3.9

     negative rho (up, down):  0.737E-02 0.000E+00

     total cpu time spent up to now is     2915.9 secs

     total energy              =    -354.32077749 Ry
     Harris-Foulkes estimate   =    -354.34148889 Ry
     estimated scf accuracy    <       0.37460452 Ry

     iteration #  6     ecut=    23.00 Ry     beta=0.50
     CG style diagonalization
     ethr =  2.06E-05,  avg # of iterations =  3.0

     negative rho (up, down):  0.593E-02 0.000E+00

     total cpu time spent up to now is     3304.0 secs

     total energy              =    -354.33048359 Ry
     Harris-Foulkes estimate   =    -354.33167764 Ry
     estimated scf accuracy    <       0.00480144 Ry

     iteration #  7     ecut=    23.00 Ry     beta=0.50
     CG style diagonalization
     ethr =  1.20E-05,  avg # of iterations =  3.0

     negative rho (up, down):  0.545E-02 0.000E+00

     total cpu time spent up to now is     3709.1 secs

     total energy              =    -354.33090287 Ry
     Harris-Foulkes estimate   =    -354.33159761 Ry
     estimated scf accuracy    <       0.00557695 Ry

     iteration #  8     ecut=    23.00 Ry     beta=0.50
     CG style diagonalization
     ethr =  1.20E-05,  avg # of iterations =  3.0

     negative rho (up, down):  0.536E-02 0.000E+00

     total cpu time spent up to now is     4112.5 secs

     total energy              =    -354.33122438 Ry
     Harris-Foulkes estimate   =    -354.33132394 Ry
     estimated scf accuracy    <       0.00043996 Ry

     iteration #  9     ecut=    23.00 Ry     beta=0.50
     CG style diagonalization
     c_bands:  1 eigenvalues not converged
     ethr =  1.10E-06,  avg # of iterations =  3.4

     negative rho (up, down):  0.531E-02 0.000E+00

     total cpu time spent up to now is     4570.2 secs

     total energy              =    -354.33127870 Ry
     Harris-Foulkes estimate   =    -354.33127943 Ry
     estimated scf accuracy    <       0.00001174 Ry

     iteration # 10     ecut=    23.00 Ry     beta=0.50
     CG style diagonalization
     ethr =  2.94E-08,  avg # of iterations =  3.0

     negative rho (up, down):  0.530E-02 0.000E+00

     total cpu time spent up to now is     4973.6 secs

     total energy              =    -354.33127932 Ry
     Harris-Foulkes estimate   =    -354.33127976 Ry
     estimated scf accuracy    <       0.00000296 Ry

     iteration # 11     ecut=    23.00 Ry     beta=0.50
     CG style diagonalization
     ethr =  7.39E-09,  avg # of iterations =  3.0

     negative rho (up, down):  0.530E-02 0.000E+00

     total cpu time spent up to now is     5377.4 secs

     total energy              =    -354.33127981 Ry
     Harris-Foulkes estimate   =    -354.33127981 Ry
     estimated scf accuracy    <       0.00000034 Ry

     iteration # 12     ecut=    23.00 Ry     beta=0.50
     CG style diagonalization
     ethr =  8.46E-10,  avg # of iterations =  3.0

     negative rho (up, down):  0.530E-02 0.000E+00

     total cpu time spent up to now is     5780.9 secs

     total energy              =    -354.33127990 Ry
     Harris-Foulkes estimate   =    -354.33127987 Ry
     estimated scf accuracy    <       0.00000003 Ry

     iteration # 13     ecut=    23.00 Ry     beta=0.50
     CG style diagonalization
     ethr =  8.69E-11,  avg # of iterations =  3.0

     negative rho (up, down):  0.530E-02 0.000E+00

     total cpu time spent up to now is     6185.5 secs

     End of self-consistent calculation

          k = 0.0000 0.0000 0.0000 ( 34923 PWs)   bands (ev):

    -7.6834  -7.0466  -6.9167  -6.9167  -6.8547  -5.9528  -5.9382  -5.6789
    -5.6789  -5.6472  -5.6472  -5.2182  -4.8376  -4.8376  -4.8026  -4.8026
    -4.7175  -4.6558  -4.5898  -4.5546  -4.4937  -4.1996  -4.1996  -2.6483
    -1.0738  -1.0716  -0.9894   0.3096   0.4898   0.4901   0.5086   0.5087
     0.8445   0.8463   1.1275   1.1277   1.2167   1.3372   1.4067   1.4340
     1.4341   1.4870   1.6524   1.7226   1.7964   1.8063   1.8067   1.9984
     1.9985   2.1045   2.2383   2.3391   2.3392   2.3531   2.7459   2.7511
     2.7511   2.8698   2.8833   2.9270   2.9273   2.9599   3.2490   3.2692
     3.2933   3.3645   3.3908   3.4099   3.4101   3.4645   3.5446   3.5674
     3.5676   3.8186   3.8187   3.8504   3.9903   4.0294   4.0297   4.0521
     4.0949   4.0949   4.1158   4.2066   4.2378   4.2433   4.2719   4.2721
     4.3306   4.3364   4.3365   4.4822   4.4830   4.5378   4.6022   4.6266
     4.6732   4.6938   4.8215   4.8215   4.8941   4.9192   4.9716   5.0789
     5.0790   5.1424   5.1427   5.1937   5.2101   5.5050   5.5050   5.5437
     5.6004   5.6004   5.6063   5.6849   5.9503   5.9540   5.9575   6.0005
     6.0005   6.0039   6.0040   6.1426   6.2137   6.2138   6.2437   6.2633
     6.2754   6.3022   6.3500   6.3705   6.3705   6.6480   6.6806   6.6979
     6.6979   6.7252   6.7616   6.8205   6.8208   6.8303   6.8306   6.8309
     6.8429   6.9207   6.9209   6.9548   7.0542   7.0657   7.0935   7.1000
     7.1001   7.1171   7.1172   7.1685   7.1749   7.1753   7.2588   7.2598
     7.3299   7.3921   7.4062   7.4250   7.4251   7.4269   7.4368   7.4369
     7.4628   7.4731   7.4888   7.4890   7.5164   7.6414   7.6421   7.7359
     7.8190   8.1005   8.2921   8.3138   8.3366   8.3585   8.3589   8.4019
     8.5688   8.7338   8.7339   8.7540   8.7542   8.8280   8.8328   8.8328
     8.9108   8.9342   8.9343   9.0152   9.0240   9.1430   9.1432   9.2728
     9.2729   9.2744   9.2909   9.2912   9.2998   9.3130   9.3362   9.3604
     9.3757   9.3759   9.3875   9.3896   9.4042   9.4043   9.4248   9.4454
     9.4454   9.4519   9.4931   9.6116   9.6118   9.6276   9.6376   9.6466
     9.6526   9.6804   9.7749   9.9194   9.9659  10.1407  10.1455  10.1455
    10.1539  10.1554  10.1555  10.1841  10.1848  10.2043  10.2187  10.2530
    10.2572  10.2885  10.2886  10.3878  10.3930  10.4165  10.4168  10.4369
    10.4624  10.4625  10.4747  10.4976  10.5111  10.5394  10.5396  10.8406
    10.8411  10.8974  10.8994  10.9592  10.9595  11.0180  11.0673  11.1725
    11.1749  11.1904  11.1906  11.2447  11.2450  11.2466  11.3620  11.3625
    11.4020  11.4028  11.4200  11.4205  11.4223  11.4611  11.4616  11.5045
    11.5071  11.6992  11.7002  11.7730  11.7978  11.8074  11.8311  11.8323

     the Fermi energy is    -4.4896 ev

!    total energy              =    -354.33127993 Ry
     Harris-Foulkes estimate   =    -354.33127991 Ry
     estimated scf accuracy    <          3.7E-09 Ry

     The total energy is the sum of the following terms:

     one-electron contribution =    -449.58783899 Ry
     hartree contribution      =     245.79101938 Ry
     xc contribution           =    -192.44349942 Ry
     ewald contribution        =      41.90824702 Ry
     smearing contrib. (-TS)   =       0.00079207 Ry

     convergence has been achieved in  13 iterations

     Forces acting on atoms (Ry/au):


     negative rho (up, down):  0.530E-02 0.000E+00
     atom    1 type  1   force =     0.07324353    0.07324353    0.00000000
     atom    2 type  1   force =    -0.07324234    0.07324458    0.00000000
     atom    3 type  1   force =    -0.07324577   -0.07324577    0.00000000
     atom    4 type  1   force =     0.07324458   -0.07324234    0.00000000

     Total force =     0.000000     Total SCF correction =     0.000000


     entering subroutine stress ...


     negative rho (up, down):  0.530E-02 0.000E+00
          total   stress  (Ry/bohr**3)                   (kbar)     P=   -7.35
  -0.00006308  -0.00000000   0.00000000         -9.28     -0.00      0.00
  -0.00000000  -0.00006308   0.00000000         -0.00     -9.28      0.00
   0.00000000   0.00000000  -0.00002364          0.00      0.00     -3.48


     BFGS Geometry Optimization

     bfgs converged in   1 scf cycles and   0 bfgs steps
     (criteria: energy < 0.10E-03, force < 0.10E-02)

     End of BFGS Geometry Optimization

     Final energy   =    -354.3312799262 Ry
Begin final coordinates

ATOMIC_POSITIONS (angstrom)
Pt       0.000000000   0.000000000   0.000000000    0   0   0
Pt       2.770000000   0.000000000   0.000000000    0   0   0
Pt       2.770000000   2.770000000   0.000000000    0   0   0
Pt       0.000000000   2.770000000   0.000000000    0   0   0
End final coordinates



     Writing output data file pt.save

     init_run     :    168.97s CPU    169.91s WALL (       1 calls)
     electrons    :   6000.98s CPU   6015.32s WALL (       1 calls)
     forces       :     76.32s CPU     76.80s WALL (       1 calls)
     stress       :    191.53s CPU    192.88s WALL (       1 calls)

     Called by init_run:
     wfcinit      :    118.70s CPU    118.97s WALL (       1 calls)
     potinit      :     11.63s CPU     11.93s WALL (       1 calls)

     Called by electrons:
     c_bands      :   5094.06s CPU   5098.92s WALL (      13 calls)
     sum_band     :    492.08s CPU    495.33s WALL (      13 calls)
     v_of_rho     :     80.02s CPU     82.69s WALL (      14 calls)
     newd         :    341.65s CPU    344.34s WALL (      14 calls)
     mix_rho      :     12.27s CPU     12.33s WALL (      13 calls)

     Called by c_bands:
     init_us_2    :      1.83s CPU      1.87s WALL (      27 calls)
     ccgdiagg     :   3428.79s CPU   3431.66s WALL (      13 calls)
     wfcrot       :   1781.11s CPU   1783.26s WALL (      13 calls)

     Called by *cgdiagg:
     h_psi        :   1776.60s CPU   1779.02s WALL (   10088 calls)
     s_psi        :    304.17s CPU    304.51s WALL (   20163 calls)
     cdiaghg      :      8.64s CPU      8.64s WALL (      13 calls)

     Called by h_psi:
     add_vuspsi   :    295.46s CPU    295.48s WALL (   10088 calls)

     General routines
     calbec       :    528.44s CPU    529.19s WALL (   20178 calls)
     fft          :     77.93s CPU     80.17s WALL (     245 calls)
     ffts         :      1.54s CPU      1.62s WALL (      27 calls)
     fftw         :   1090.61s CPU   1091.85s WALL (   31382 calls)
     interpolate  :     10.70s CPU     11.60s WALL (      27 calls)
     davcio       :      0.00s CPU      0.29s WALL (       1 calls)

     Parallel routines
     fft_scatter  :     71.60s CPU     73.56s WALL (   31654 calls)

     PWSCF        :     1h47m CPU        1h47m WALL


   This run was terminated on:  18:36:29   6Nov2019            

=------------------------------------------------------------------------------=
   JOB DONE.
=------------------------------------------------------------------------------=
